# vtk DataFile Version 3.0
vtk output
ASCII
DATASET POLYDATA
POINTS 6 float
0.50000000 0.00000000 0.50000000
0.00000000 0.50000000 0.50000000
0.50000000 0.50000000 0.00000000
1.00000000 0.50000000 0.50000000
0.50000000 1.00000000 0.50000000
0.50000000 0.50000000 1.00000000
POLYGONS 8 32
3 0 1 2
3 0 3 2
3 3 4 2
3 4 1 2
3 0 1 5
3 0 3 5
3 3 4 5
3 4 1 5
POINT_DATA 6
NORMALS Normals float
0.00097752 -0.99999905 0.00097752
-0.99999905 0.00097752 0.00097752
0.00097752 0.00097752 -0.99999905
0.99999905 0.00097752 0.00097752
0.00097752 0.99999905 0.00097752
0.00097752 0.00097752 0.99999905
COLOR_SCALARS RGB 3
1.00000000 0.00000000 0.00000000
1.00000000 0.00000000 0.00000000
0.00000000 1.00000000 0.00000000
1.00000000 0.00000000 0.00000000
1.00000000 0.00000000 0.00000000
0.00000000 0.00000000 1.00000000
